  54
   1   1
     7.141216765226065    -0.000000000000000    -0.000000000000000
    -0.000000000000000     7.141216765226063     0.000000000000001
     0.000000000000000     0.000000000000000     7.196897992629603
   1   2
    -0.921270019473599     0.000000000000000    -0.000000000000000
    -0.000000000000000     0.084476584331175     0.000000000000000
    -0.000000000000000     0.000000000000000     0.132893205899887
   1   3
    -0.921270019473599     0.000000000000000    -0.000000000000000
    -0.000000000000000     0.084476584331175     0.000000000000000
    -0.000000000000000     0.000000000000000     0.132893205899887
3   1   4
    -0.166960066620019     0.435501054332429    -0.000000000000000
     0.435501054332429    -0.669833368522406     0.000000000000000
     0.000000000000000    -0.000000000000000     0.132893205899887
4   1   5
    -0.166960066620019    -0.435501054332429    -0.000000000000000
    -0.435501054332429    -0.669833368522406     0.000000000000000
    -0.000000000000000    -0.000000000000000     0.132893205899887
5   1   6
    -0.025841198677886    -0.000000000000000    -0.000000000000000
     0.000000000000000    -0.025841198677886     0.000000000000000
    -0.000000000000000    -0.000000000000000     0.034864566400146
3   1   7
    -0.166960066620019     0.435501054332429    -0.000000000000000
     0.435501054332429    -0.669833368522406     0.000000000000000
     0.000000000000000    -0.000000000000000     0.132893205899887
5   1   8
    -0.025841198677886    -0.000000000000000    -0.000000000000000
     0.000000000000000    -0.025841198677886     0.000000000000000
    -0.000000000000000    -0.000000000000000     0.034864566400146
4   1   9
    -0.166960066620019    -0.435501054332429    -0.000000000000000
    -0.435501054332429    -0.669833368522406     0.000000000000000
    -0.000000000000000    -0.000000000000000     0.132893205899887
6   1  10
     0.051728973951207    -0.000000000000000    -0.000000000000000
    -0.000000000000000     0.051728973951206    -0.000000000000000
     0.000000000000000     0.000000000000000    -0.804382526718346
7   1  11
    -0.000419316545488    -0.000000000000000    -0.000000000000000
     0.000000000000000     0.004104322501405    -0.000000000000000
    -0.000000000000000     0.000000000000000    -0.088837665674842
7   1  12
    -0.000419316545488    -0.000000000000000    -0.000000000000000
     0.000000000000000     0.004104322501405    -0.000000000000000
     0.000000000000000     0.000000000000000    -0.088837665674842
   1  13
     0.002973412739682     0.001958793166081    -0.000000000000000
     0.001958793166081     0.000711593216235    -0.000000000000000
     0.000000000000000    -0.000000000000000    -0.088837665674842
   1  14
     0.002973412739682    -0.001958793166081    -0.000000000000000
    -0.001958793166081     0.000711593216235    -0.000000000000000
    -0.000000000000000    -0.000000000000000    -0.088837665674842
   1  15
    -0.001173226674191     0.000000000000000    -0.000000000000000
    -0.000000000000000    -0.001173226674191    -0.000000000000000
    -0.000000000000000    -0.000000000000000    -0.013225058407346
   1  16
     0.002973412739682     0.001958793166081    -0.000000000000000
     0.001958793166081     0.000711593216235    -0.000000000000000
    -0.000000000000000     0.000000000000000    -0.088837665674842
   1  17
    -0.001173226674191     0.000000000000000    -0.000000000000000
     0.000000000000000    -0.001173226674191    -0.000000000000000
    -0.000000000000000    -0.000000000000000    -0.013225058407346
   1  18
     0.002973412739682    -0.001958793166081    -0.000000000000000
    -0.001958793166081     0.000711593216235    -0.000000000000000
    -0.000000000000000     0.000000000000000    -0.088837665674842
1b1   1  19
     0.071361943489612    -0.000000000000000    -0.000000000000000
     0.000000000000000    -0.743708526075254    -0.444151542877826
     0.000000000000000    -0.735564736987668    -0.521579258467094
   1  20
    -0.097050579719249    -0.044638818295171    -0.103828672425534
    -0.044638818295171    -0.045506112201201    -0.059945511974484
    -0.003968738015255    -0.002291351961451    -0.010989327134201
   1  21
    -0.097050579719249     0.044638818295171     0.103828672425534
     0.044638818295171    -0.045506112201201    -0.059945511974484
     0.003968738015255    -0.002291351961451    -0.010989327134201
1b4   1  22
     0.000936937164275    -0.034437294736065    -0.034236630004975
    -0.034437294736065     0.040701699936335    -0.019766527549518
    -0.044464788774579    -0.025671757768463    -0.025775940116347
1b5   1  23
     0.000936937164275     0.034437294736065     0.034236630004975
     0.034437294736065     0.040701699936335    -0.019766527549518
     0.044464788774579    -0.025671757768463    -0.025775940116347
   1  24
    -0.019733878442177     0.000000000000000     0.000000000000000
    -0.000000000000000    -0.122822813478272     0.119891023948968
    -0.000000000000000     0.004582703922902    -0.010989327134201
1b7   1  25
    -0.539940908684038     0.352935866258843    -0.384646519262251
     0.352935866258843    -0.132405673901604     0.222075771438913
    -0.637017748359340     0.367782368493834    -0.521579258467094
   1  26
     0.060584081322365    -0.000000000000000    -0.000000000000000
     0.000000000000000    -0.018945444221755     0.039533055099036
     0.000000000000000     0.051343515536926    -0.025775940116347
1b9   1  27
    -0.539940908684037    -0.352935866258843     0.384646519262251
    -0.352935866258843    -0.132405673901604     0.222075771438913
     0.637017748359340     0.367782368493834    -0.521579258467094
1b10   1  28
     0.071361943489612    -0.000000000000000    -0.000000000000000
    -0.000000000000000    -0.743708526075254     0.444151542877826
     0.000000000000000     0.735564736987668    -0.521579258467094
   1  29
    -0.097050579719249    -0.044638818295171     0.103828672425534
    -0.044638818295171    -0.045506112201201     0.059945511974484
     0.003968738015255     0.002291351961451    -0.010989327134201
   1  30
    -0.097050579719249     0.044638818295171    -0.103828672425534
     0.044638818295171    -0.045506112201201     0.059945511974484
    -0.003968738015255     0.002291351961451    -0.010989327134201
1b13   1  31
     0.000936937164275    -0.034437294736065     0.034236630004975
    -0.034437294736065     0.040701699936335     0.019766527549518
     0.044464788774579     0.025671757768463    -0.025775940116347
1b14   1  32
     0.000936937164275     0.034437294736065    -0.034236630004975
     0.034437294736065     0.040701699936335     0.019766527549518
    -0.044464788774579     0.025671757768463    -0.025775940116347
   1  33
    -0.019733878442177    -0.000000000000000    -0.000000000000000
     0.000000000000000    -0.122822813478272    -0.119891023948968
    -0.000000000000000    -0.004582703922902    -0.010989327134201
   1  34
    -0.539940908684038     0.352935866258843     0.384646519262251
     0.352935866258843    -0.132405673901604    -0.222075771438913
     0.637017748359340    -0.367782368493834    -0.521579258467094
   1  35
     0.060584081322365     0.000000000000000    -0.000000000000000
     0.000000000000000    -0.018945444221755    -0.039533055099036
     0.000000000000000    -0.051343515536926    -0.025775940116347
   1  36
    -0.539940908684038    -0.352935866258843    -0.384646519262251
    -0.352935866258843    -0.132405673901604    -0.222075771438913
    -0.637017748359340    -0.367782368493834    -0.521579258467094
2b1   1  37
    -0.539940908684038    -0.352935866258843    -0.384646519262251
    -0.352935866258843    -0.132405673901604    -0.222075771438913
    -0.637017748359340    -0.367782368493834    -0.521579258467094
   1  38
     0.060584081322365     0.000000000000000     0.000000000000000
     0.000000000000000    -0.018945444221755    -0.039533055099036
     0.000000000000000    -0.051343515536926    -0.025775940116347
   1  39
    -0.539940908684038     0.352935866258843     0.384646519262251
     0.352935866258843    -0.132405673901604    -0.222075771438913
     0.637017748359340    -0.367782368493834    -0.521579258467094
   1  40
    -0.019733878442177    -0.000000000000000    -0.000000000000000
     0.000000000000000    -0.122822813478272    -0.119891023948968
    -0.000000000000000    -0.004582703922902    -0.010989327134201
2b5   1  41
     0.000936937164275     0.034437294736065    -0.034236630004975
     0.034437294736065     0.040701699936335     0.019766527549518
    -0.044464788774579     0.025671757768463    -0.025775940116347
2b6   1  42
     0.000936937164275    -0.034437294736065     0.034236630004975
    -0.034437294736065     0.040701699936335     0.019766527549518
     0.044464788774579     0.025671757768463    -0.025775940116347
   1  43
    -0.097050579719249     0.044638818295171    -0.103828672425534
     0.044638818295171    -0.045506112201201     0.059945511974484
    -0.003968738015255     0.002291351961451    -0.010989327134201
   1  44
    -0.097050579719248    -0.044638818295171     0.103828672425534
    -0.044638818295171    -0.045506112201201     0.059945511974484
     0.003968738015255     0.002291351961451    -0.010989327134201
   1  45
     0.071361943489612     0.000000000000000    -0.000000000000000
    -0.000000000000000    -0.743708526075254     0.444151542877826
     0.000000000000000     0.735564736987668    -0.521579258467094
2b10   1  46
    -0.539940908684037    -0.352935866258843     0.384646519262251
    -0.352935866258843    -0.132405673901604     0.222075771438913
     0.637017748359340     0.367782368493834    -0.521579258467094
   1  47
     0.060584081322365    -0.000000000000000    -0.000000000000000
     0.000000000000000    -0.018945444221755     0.039533055099036
     0.000000000000000     0.051343515536926    -0.025775940116347
2b12   1  48
    -0.539940908684038     0.352935866258843    -0.384646519262251
     0.352935866258842    -0.132405673901604     0.222075771438913
    -0.637017748359340     0.367782368493834    -0.521579258467094
   1  49
    -0.019733878442177     0.000000000000000    -0.000000000000000
    -0.000000000000000    -0.122822813478272     0.119891023948968
    -0.000000000000000     0.004582703922902    -0.010989327134201
   1  50
     0.000936937164275     0.034437294736065     0.034236630004975
     0.034437294736065     0.040701699936335    -0.019766527549518
     0.044464788774579    -0.025671757768463    -0.025775940116347
   1  51
     0.000936937164275    -0.034437294736065    -0.034236630004975
    -0.034437294736065     0.040701699936335    -0.019766527549518
    -0.044464788774579    -0.025671757768463    -0.025775940116347
   1  52
    -0.097050579719249     0.044638818295171     0.103828672425534
     0.044638818295171    -0.045506112201201    -0.059945511974484
     0.003968738015255    -0.002291351961451    -0.010989327134201
   1  53
    -0.097050579719249    -0.044638818295171    -0.103828672425534
    -0.044638818295171    -0.045506112201201    -0.059945511974484
    -0.003968738015255    -0.002291351961451    -0.010989327134201
2b18   1  54
     0.071361943489612    -0.000000000000000    -0.000000000000000
     0.000000000000000    -0.743708526075254    -0.444151542877826
     0.000000000000000    -0.735564736987668    -0.521579258467094
   2   1
    -0.921270019473599     0.000000000000000     0.000000000000000
    -0.000000000000000     0.084476584331175    -0.000000000000000
    -0.000000000000000    -0.000000000000000     0.132893205899887
   2   2
     7.141216765226065     0.000000000000000     0.000000000000001
     0.000000000000000     7.141216765226063    -0.000000000000001
     0.000000000000000    -0.000000000000000     7.196897992629603
   2   3
    -0.921270019473599     0.000000000000000     0.000000000000000
    -0.000000000000000     0.084476584331175    -0.000000000000000
    -0.000000000000000    -0.000000000000000     0.132893205899887
   2   4
    -0.025841198677886     0.000000000000000     0.000000000000000
     0.000000000000000    -0.025841198677886    -0.000000000000000
    -0.000000000000000     0.000000000000000     0.034864566400146
   2   5
    -0.166960066620019     0.435501054332429     0.000000000000000
     0.435501054332429    -0.669833368522405    -0.000000000000000
    -0.000000000000000     0.000000000000000     0.132893205899887
   2   6
    -0.166960066620019    -0.435501054332429     0.000000000000000
    -0.435501054332429    -0.669833368522405    -0.000000000000000
     0.000000000000000     0.000000000000000     0.132893205899887
   2   7
    -0.166960066620019    -0.435501054332429     0.000000000000000
    -0.435501054332429    -0.669833368522405    -0.000000000000000
     0.000000000000000     0.000000000000000     0.132893205899887
   2   8
    -0.166960066620019     0.435501054332429     0.000000000000000
     0.435501054332429    -0.669833368522405    -0.000000000000000
    -0.000000000000000     0.000000000000000     0.132893205899887
   2   9
    -0.025841198677886     0.000000000000000     0.000000000000000
     0.000000000000000    -0.025841198677886    -0.000000000000000
    -0.000000000000000     0.000000000000000     0.034864566400146
   2  10
    -0.000419316545488    -0.000000000000000    -0.000000000000000
    -0.000000000000000     0.004104322501405     0.000000000000000
    -0.000000000000000    -0.000000000000000    -0.088837665674842
   2  11
     0.051728973951206     0.000000000000000    -0.000000000000000
     0.000000000000000     0.051728973951206     0.000000000000000
     0.000000000000000    -0.000000000000000    -0.804382526718346
   2  12
    -0.000419316545488    -0.000000000000000    -0.000000000000000
    -0.000000000000000     0.004104322501405     0.000000000000000
     0.000000000000000    -0.000000000000000    -0.088837665674842
   2  13
    -0.001173226674191     0.000000000000000    -0.000000000000000
     0.000000000000000    -0.001173226674191     0.000000000000000
    -0.000000000000000     0.000000000000000    -0.013225058407346
   2  14
     0.002973412739682     0.001958793166081    -0.000000000000000
     0.001958793166081     0.000711593216235     0.000000000000000
     0.000000000000000     0.000000000000000    -0.088837665674842
   2  15
     0.002973412739682    -0.001958793166081    -0.000000000000000
    -0.001958793166081     0.000711593216235     0.000000000000000
     0.000000000000000     0.000000000000000    -0.088837665674842
   2  16
     0.002973412739682    -0.001958793166081    -0.000000000000000
    -0.001958793166081     0.000711593216235     0.000000000000000
     0.000000000000000    -0.000000000000000    -0.088837665674842
   2  17
     0.002973412739682     0.001958793166081    -0.000000000000000
     0.001958793166081     0.000711593216235     0.000000000000000
     0.000000000000000    -0.000000000000000    -0.088837665674842
   2  18
    -0.001173226674191    -0.000000000000000    -0.000000000000000
    -0.000000000000000    -0.001173226674191     0.000000000000000
    -0.000000000000000     0.000000000000000    -0.013225058407346
   2  19
    -0.097050579719249     0.044638818295171     0.103828672425534
     0.044638818295171    -0.045506112201201    -0.059945511974484
     0.003968738015255    -0.002291351961451    -0.010989327134201
   2  20
     0.071361943489612    -0.000000000000000    -0.000000000000000
     0.000000000000000    -0.743708526075254    -0.444151542877826
     0.000000000000000    -0.735564736987668    -0.521579258467094
   2  21
    -0.097050579719249    -0.044638818295171    -0.103828672425534
    -0.044638818295171    -0.045506112201201    -0.059945511974484
    -0.003968738015255    -0.002291351961451    -0.010989327134201
   2  22
    -0.019733878442177    -0.000000000000000    -0.000000000000000
     0.000000000000000    -0.122822813478272     0.119891023948968
     0.000000000000000     0.004582703922902    -0.010989327134201
   2  23
     0.000936937164275    -0.034437294736065    -0.034236630004975
    -0.034437294736065     0.040701699936335    -0.019766527549518
    -0.044464788774579    -0.025671757768463    -0.025775940116347
   2  24
     0.000936937164275     0.034437294736065     0.034236630004975
     0.034437294736065     0.040701699936335    -0.019766527549518
     0.044464788774579    -0.025671757768463    -0.025775940116347
   2  25
    -0.539940908684037    -0.352935866258843     0.384646519262251
    -0.352935866258843    -0.132405673901604     0.222075771438913
     0.637017748359340     0.367782368493834    -0.521579258467094
   2  26
    -0.539940908684038     0.352935866258843    -0.384646519262251
     0.352935866258843    -0.132405673901604     0.222075771438913
    -0.637017748359340     0.367782368493834    -0.521579258467094
   2  27
     0.060584081322365     0.000000000000000    -0.000000000000000
     0.000000000000000    -0.018945444221755     0.039533055099036
     0.000000000000000     0.051343515536926    -0.025775940116347
   2  28
    -0.097050579719249     0.044638818295171    -0.103828672425534
     0.044638818295171    -0.045506112201201     0.059945511974484
    -0.003968738015255     0.002291351961451    -0.010989327134201
   2  29
     0.071361943489612     0.000000000000000    -0.000000000000000
     0.000000000000000    -0.743708526075254     0.444151542877826
    -0.000000000000000     0.735564736987668    -0.521579258467094
   2  30
    -0.097050579719249    -0.044638818295171     0.103828672425534
    -0.044638818295171    -0.045506112201201     0.059945511974484
     0.003968738015255     0.002291351961451    -0.010989327134201
   2  31
    -0.019733878442177     0.000000000000000     0.000000000000000
     0.000000000000000    -0.122822813478272    -0.119891023948968
    -0.000000000000000    -0.004582703922902    -0.010989327134201
   2  32
     0.000936937164275    -0.034437294736065     0.034236630004975
    -0.034437294736065     0.040701699936335     0.019766527549518
     0.044464788774579     0.025671757768463    -0.025775940116347
   2  33
     0.000936937164275     0.034437294736065    -0.034236630004975
     0.034437294736065     0.040701699936335     0.019766527549518
    -0.044464788774579     0.025671757768463    -0.025775940116347
   2  34
    -0.539940908684038    -0.352935866258843    -0.384646519262251
    -0.352935866258843    -0.132405673901604    -0.222075771438913
    -0.637017748359340    -0.367782368493834    -0.521579258467094
   2  35
    -0.539940908684038     0.352935866258843     0.384646519262251
     0.352935866258843    -0.132405673901604    -0.222075771438913
     0.637017748359340    -0.367782368493834    -0.521579258467094
   2  36
     0.060584081322365    -0.000000000000000    -0.000000000000000
     0.000000000000000    -0.018945444221755    -0.039533055099036
     0.000000000000000    -0.051343515536926    -0.025775940116347
   2  37
    -0.539940908684038     0.352935866258843     0.384646519262251
     0.352935866258843    -0.132405673901604    -0.222075771438913
     0.637017748359340    -0.367782368493834    -0.521579258467094
   2  38
    -0.539940908684038    -0.352935866258843    -0.384646519262251
    -0.352935866258843    -0.132405673901604    -0.222075771438913
    -0.637017748359340    -0.367782368493834    -0.521579258467094
   2  39
     0.060584081322365    -0.000000000000000    -0.000000000000000
     0.000000000000000    -0.018945444221755    -0.039533055099036
     0.000000000000000    -0.051343515536926    -0.025775940116347
   2  40
     0.000936937164275    -0.034437294736065     0.034236630004975
    -0.034437294736065     0.040701699936335     0.019766527549518
     0.044464788774579     0.025671757768463    -0.025775940116347
   2  41
    -0.019733878442177     0.000000000000000     0.000000000000000
    -0.000000000000000    -0.122822813478272    -0.119891023948968
    -0.000000000000000    -0.004582703922902    -0.010989327134201
   2  42
     0.000936937164275     0.034437294736065    -0.034236630004975
     0.034437294736065     0.040701699936335     0.019766527549518
    -0.044464788774579     0.025671757768463    -0.025775940116347
   2  43
     0.071361943489612     0.000000000000000    -0.000000000000000
     0.000000000000000    -0.743708526075254     0.444151542877826
    -0.000000000000000     0.735564736987668    -0.521579258467094
   2  44
    -0.097050579719249     0.044638818295171    -0.103828672425534
     0.044638818295171    -0.045506112201201     0.059945511974484
    -0.003968738015255     0.002291351961451    -0.010989327134201
   2  45
    -0.097050579719249    -0.044638818295171     0.103828672425534
    -0.044638818295171    -0.045506112201201     0.059945511974484
     0.003968738015255     0.002291351961451    -0.010989327134201
   2  46
    -0.539940908684038     0.352935866258843    -0.384646519262251
     0.352935866258843    -0.132405673901604     0.222075771438913
    -0.637017748359340     0.367782368493834    -0.521579258467094
   2  47
    -0.539940908684038    -0.352935866258843     0.384646519262251
    -0.352935866258843    -0.132405673901604     0.222075771438913
     0.637017748359340     0.367782368493834    -0.521579258467094
   2  48
     0.060584081322365     0.000000000000000    -0.000000000000000
     0.000000000000000    -0.018945444221755     0.039533055099036
     0.000000000000000     0.051343515536926    -0.025775940116347
   2  49
     0.000936937164275    -0.034437294736065    -0.034236630004975
    -0.034437294736065     0.040701699936335    -0.019766527549518
    -0.044464788774579    -0.025671757768463    -0.025775940116347
   2  50
    -0.019733878442177     0.000000000000000    -0.000000000000000
     0.000000000000000    -0.122822813478272     0.119891023948968
    -0.000000000000000     0.004582703922902    -0.010989327134201
   2  51
     0.000936937164275     0.034437294736065     0.034236630004975
     0.034437294736065     0.040701699936335    -0.019766527549518
     0.044464788774579    -0.025671757768463    -0.025775940116347
   2  52
     0.071361943489612    -0.000000000000000    -0.000000000000000
     0.000000000000000    -0.743708526075254    -0.444151542877826
     0.000000000000000    -0.735564736987668    -0.521579258467094
   2  53
    -0.097050579719249     0.044638818295171     0.103828672425534
     0.044638818295171    -0.045506112201201    -0.059945511974484
     0.003968738015255    -0.002291351961451    -0.010989327134201
   2  54
    -0.097050579719249    -0.044638818295171    -0.103828672425534
    -0.044638818295171    -0.045506112201201    -0.059945511974484
    -0.003968738015255    -0.002291351961451    -0.010989327134201
   3   1
    -0.921270019473599     0.000000000000000     0.000000000000000
    -0.000000000000000     0.084476584331175    -0.000000000000000
    -0.000000000000000    -0.000000000000000     0.132893205899887
   3   2
    -0.921270019473599     0.000000000000000     0.000000000000000
    -0.000000000000000     0.084476584331175    -0.000000000000000
    -0.000000000000000    -0.000000000000000     0.132893205899887
   3   3
     7.141216765226065     0.000000000000000     0.000000000000001
     0.000000000000000     7.141216765226063    -0.000000000000001
     0.000000000000000    -0.000000000000000     7.196897992629603
   3   4
    -0.166960066620019    -0.435501054332429     0.000000000000000
    -0.435501054332429    -0.669833368522405    -0.000000000000000
     0.000000000000000     0.000000000000000     0.132893205899887
   3   5
    -0.025841198677886     0.000000000000000     0.000000000000000
     0.000000000000000    -0.025841198677886    -0.000000000000000
    -0.000000000000000     0.000000000000000     0.034864566400146
   3   6
    -0.166960066620019     0.435501054332429     0.000000000000000
     0.435501054332429    -0.669833368522405    -0.000000000000000
    -0.000000000000000     0.000000000000000     0.132893205899887
   3   7
    -0.025841198677886     0.000000000000000     0.000000000000000
     0.000000000000000    -0.025841198677886    -0.000000000000000
    -0.000000000000000     0.000000000000000     0.034864566400146
   3   8
    -0.166960066620019    -0.435501054332429     0.000000000000000
    -0.435501054332429    -0.669833368522405    -0.000000000000000
     0.000000000000000     0.000000000000000     0.132893205899887
   3   9
    -0.166960066620019     0.435501054332429     0.000000000000000
     0.435501054332429    -0.669833368522405    -0.000000000000000
    -0.000000000000000     0.000000000000000     0.132893205899887
   3  10
    -0.000419316545488    -0.000000000000000    -0.000000000000000
    -0.000000000000000     0.004104322501405     0.000000000000000
    -0.000000000000000    -0.000000000000000    -0.088837665674842
   3  11
    -0.000419316545488    -0.000000000000000    -0.000000000000000
    -0.000000000000000     0.004104322501405     0.000000000000000
     0.000000000000000    -0.000000000000000    -0.088837665674842
   3  12
     0.051728973951206     0.000000000000000    -0.000000000000000
     0.000000000000000     0.051728973951206     0.000000000000000
     0.000000000000000    -0.000000000000000    -0.804382526718346
   3  13
     0.002973412739682    -0.001958793166081    -0.000000000000000
    -0.001958793166081     0.000711593216235     0.000000000000000
     0.000000000000000    -0.000000000000000    -0.088837665674842
   3  14
    -0.001173226674191    -0.000000000000000    -0.000000000000000
    -0.000000000000000    -0.001173226674191     0.000000000000000
    -0.000000000000000     0.000000000000000    -0.013225058407346
   3  15
     0.002973412739682     0.001958793166081    -0.000000000000000
     0.001958793166081     0.000711593216235     0.000000000000000
     0.000000000000000    -0.000000000000000    -0.088837665674842
   3  16
    -0.001173226674191     0.000000000000000    -0.000000000000000
     0.000000000000000    -0.001173226674191     0.000000000000000
    -0.000000000000000     0.000000000000000    -0.013225058407346
   3  17
     0.002973412739682    -0.001958793166081    -0.000000000000000
    -0.001958793166081     0.000711593216235     0.000000000000000
     0.000000000000000     0.000000000000000    -0.088837665674842
   3  18
     0.002973412739682     0.001958793166081    -0.000000000000000
     0.001958793166081     0.000711593216235     0.000000000000000
     0.000000000000000     0.000000000000000    -0.088837665674842
   3  19
    -0.097050579719249    -0.044638818295171    -0.103828672425534
    -0.044638818295171    -0.045506112201201    -0.059945511974484
    -0.003968738015255    -0.002291351961451    -0.010989327134201
   3  20
    -0.097050579719249     0.044638818295171     0.103828672425534
     0.044638818295171    -0.045506112201201    -0.059945511974484
     0.003968738015255    -0.002291351961451    -0.010989327134201
   3  21
     0.071361943489612    -0.000000000000000    -0.000000000000000
     0.000000000000000    -0.743708526075254    -0.444151542877826
     0.000000000000000    -0.735564736987668    -0.521579258467094
   3  22
     0.000936937164275     0.034437294736065     0.034236630004975
     0.034437294736065     0.040701699936335    -0.019766527549518
     0.044464788774579    -0.025671757768463    -0.025775940116347
   3  23
    -0.019733878442177     0.000000000000000    -0.000000000000000
     0.000000000000000    -0.122822813478272     0.119891023948968
    -0.000000000000000     0.004582703922902    -0.010989327134201
   3  24
     0.000936937164275    -0.034437294736065    -0.034236630004975
    -0.034437294736065     0.040701699936335    -0.019766527549518
    -0.044464788774579    -0.025671757768463    -0.025775940116347
   3  25
     0.060584081322365     0.000000000000000    -0.000000000000000
     0.000000000000000    -0.018945444221755     0.039533055099036
     0.000000000000000     0.051343515536926    -0.025775940116347
   3  26
    -0.539940908684038    -0.352935866258843     0.384646519262251
    -0.352935866258843    -0.132405673901604     0.222075771438913
     0.637017748359340     0.367782368493834    -0.521579258467094
   3  27
    -0.539940908684038     0.352935866258843    -0.384646519262251
     0.352935866258843    -0.132405673901604     0.222075771438913
    -0.637017748359340     0.367782368493834    -0.521579258467094
   3  28
    -0.097050579719249    -0.044638818295171     0.103828672425534
    -0.044638818295171    -0.045506112201201     0.059945511974484
     0.003968738015255     0.002291351961451    -0.010989327134201
   3  29
    -0.097050579719249     0.044638818295171    -0.103828672425534
     0.044638818295171    -0.045506112201201     0.059945511974484
    -0.003968738015255     0.002291351961451    -0.010989327134201
   3  30
     0.071361943489612     0.000000000000000    -0.000000000000000
     0.000000000000000    -0.743708526075254     0.444151542877826
    -0.000000000000000     0.735564736987668    -0.521579258467094
   3  31
     0.000936937164275     0.034437294736065    -0.034236630004975
     0.034437294736065     0.040701699936335     0.019766527549518
    -0.044464788774579     0.025671757768463    -0.025775940116347
   3  32
    -0.019733878442177     0.000000000000000     0.000000000000000
    -0.000000000000000    -0.122822813478272    -0.119891023948968
    -0.000000000000000    -0.004582703922902    -0.010989327134201
   3  33
     0.000936937164275    -0.034437294736065     0.034236630004975
    -0.034437294736065     0.040701699936335     0.019766527549518
     0.044464788774579     0.025671757768463    -0.025775940116347
   3  34
     0.060584081322365    -0.000000000000000    -0.000000000000000
     0.000000000000000    -0.018945444221755    -0.039533055099036
     0.000000000000000    -0.051343515536926    -0.025775940116347
   3  35
    -0.539940908684038    -0.352935866258843    -0.384646519262251