  54

     7.024998103932876     0.000000000000000     0.000000000000000
     0.000000000000000     7.024997995924396     0.000000000000000
     0.000000000000000     0.000000000000000     6.930746764529609

    -0.921051897963412     0.000000000000000     0.000000000000000
     0.000000000000000     0.093373375718832     0.000000000000000
     0.000000000000000     0.000000000000000     0.115065739844238

    -0.921051897963412     0.000000000000000     0.000000000000000
     0.000000000000000     0.093373375718832     0.000000000000000
     0.000000000000000     0.000000000000000     0.115065739844238

    -0.160232902212397     0.439259016363881     0.000000000000000
     0.439259016363881    -0.667445539055948     0.000000000000000
     0.000000000000000     0.000000000000000     0.115065739844238

    -0.160232902212397    -0.439259016363881     0.000000000000000
    -0.439259016363881    -0.667445539055948     0.000000000000000
     0.000000000000000     0.000000000000000     0.115065739844238

     0.030278490229934    -0.000000000000000     0.000000000000000
    -0.000000000000000     0.030278544215273     0.000000000000000
     0.000000000000000     0.000000000000000     0.062240297485922

    -0.160232902212397     0.439259016363881     0.000000000000000
     0.439259016363881    -0.667445539055948     0.000000000000000
     0.000000000000000     0.000000000000000     0.115065739844238

     0.030278490229934    -0.000000000000000     0.000000000000000
    -0.000000000000000     0.030278544215273     0.000000000000000
     0.000000000000000     0.000000000000000     0.062240297485922

    -0.160232902212397    -0.439259016363881     0.000000000000000
    -0.439259016363881    -0.667445539055948     0.000000000000000
     0.000000000000000     0.000000000000000     0.115065739844238

     0.046083455620357     0.000000000000000     0.000000000000000
     0.000000000000000     0.046083455620357     0.000000000000000
     0.000000000000000     0.000000000000000    -0.832420702874970

     0.002255561677581     0.000000000000000     0.000000000000000
     0.000000000000000     0.010921343158335     0.000000000000000
     0.000000000000000     0.000000000000000    -0.062579946280914

     0.002255561677581     0.000000000000000     0.000000000000000
     0.000000000000000     0.010921343158335     0.000000000000000
     0.000000000000000     0.000000000000000    -0.062579946280914

     0.008754938277171     0.003752440316564     0.000000000000000
     0.003752440316564     0.004422047536778     0.000000000000000
     0.000000000000000     0.000000000000000    -0.062579946280914

     0.008754938277171    -0.003752440316564     0.000000000000000
    -0.003752440316564     0.004422047536778     0.000000000000000
     0.000000000000000     0.000000000000000    -0.062579946280914

    -0.004905324340535     0.000000000000000     0.000000000000000
     0.000000000000000    -0.004905324340535     0.000000000000000
     0.000000000000000     0.000000000000000     0.035393169736356

     0.008754938277171     0.003752440316564     0.000000000000000
     0.003752440316564     0.004422047536778     0.000000000000000
     0.000000000000000     0.000000000000000    -0.062579946280914

    -0.004905324340535     0.000000000000000     0.000000000000000
     0.000000000000000    -0.004905324340535     0.000000000000000
     0.000000000000000     0.000000000000000     0.035393169736356

     0.008754938277171    -0.003752440316564     0.000000000000000
    -0.003752440316564     0.004422047536778     0.000000000000000
     0.000000000000000     0.000000000000000    -0.062579946280914

     0.080216040570557     0.000000000000000     0.000000000000000
     0.000000000000000    -0.740772563802578    -0.731146949888082
     0.000000000000000    -0.443195600690615    -0.520087088786876

    -0.097615328146599    -0.043823484104600    -0.006225773846087
    -0.043823484104600    -0.047012273472047    -0.003594452205951
    -0.096967816207588    -0.055984394790048    -0.009311446200715

    -0.097615328146599     0.043823484104600     0.006225773846087
     0.043823484104600    -0.047012273472047    -0.003594452205951
     0.096967816207588    -0.055984394790048    -0.009311446200715

    -0.003503919916703    -0.034125423581731    -0.045735325526043
    -0.034125423581731     0.035900698072884    -0.026405302503931
    -0.030813793720698    -0.017790352099392    -0.031887994108600

    -0.003503919916703     0.034125423581731     0.045735325526043
     0.034125423581731     0.035900698072884    -0.026405302503931
     0.030813793720698    -0.017790352099392    -0.031887994108600

    -0.021710804376290    -0.000000000000000     0.000000000000000
    -0.000000000000000    -0.122916805905481     0.007188944436209
     0.000000000000000     0.111968913388520    -0.009311406485420

    -0.535525384582269     0.355498505706125    -0.633191816592680
     0.355498505706125    -0.125031095642652     0.365573465757733
    -0.383818593089832     0.221597768040180    -0.520087049980591

     0.055603073565703    -0.000000000000000     0.000000000000000
    -0.000000000000000    -0.023206243740618     0.052810583356414
     0.000000000000000     0.035580645000178    -0.031887995020088

    -0.535525384582269    -0.355498505706125     0.633191816592680
    -0.355498505706125    -0.125031095642652     0.365573465757733
     0.383818593089832     0.221597768040180    -0.520087049980591

     0.080216040570557     0.000000000000000     0.000000000000000
     0.000000000000000    -0.740772563802578     0.731146949888082
     0.000000000000000     0.443195600690615    -0.520087088786876

    -0.097615328146599    -0.043823484104600     0.006225773846087
    -0.043823484104600    -0.047012273472047     0.003594452205951
     0.096967816207588     0.055984394790048    -0.009311446200715

    -0.097615328146599     0.043823484104600    -0.006225773846087
     0.043823484104600    -0.047012273472047     0.003594452205951
    -0.096967816207588     0.055984394790048    -0.009311446200715

    -0.003503919916703    -0.034125423581731     0.045735325526043
    -0.034125423581731     0.035900698072884     0.026405302503931
     0.030813793720698     0.017790352099392    -0.031887994108600

    -0.003503919916703     0.034125423581731    -0.045735325526043
     0.034125423581731     0.035900698072884     0.026405302503931
    -0.030813793720698     0.017790352099392    -0.031887994108600

    -0.021710804376290    -0.000000000000000     0.000000000000000
    -0.000000000000000    -0.122916805905481    -0.007188944436209
    -0.000000000000000    -0.111968913388520    -0.009311406485420

    -0.535525384582269     0.355498505706125     0.633191816592680
     0.355498505706125    -0.125031095642652    -0.365573465757733
     0.383818593089832    -0.221597768040180    -0.520087049980591

     0.055603073565703    -0.000000000000000    -0.000000000000000
    -0.000000000000000    -0.023206243740618    -0.052810583356414
    -0.000000000000000    -0.035580645000178    -0.031887995020088

    -0.535525384582269    -0.355498505706125    -0.633191816592680
    -0.355498505706125    -0.125031095642652    -0.365573465757733
    -0.383818593089832    -0.221597768040180    -0.520087049980591

    -0.535525358724368    -0.355498514016413    -0.633191837985452
    -0.355498514016413    -0.125031164507653    -0.365573474944041
    -0.383818577904996    -0.221597692374484    -0.520087088786876

     0.055603038070609     0.000000056860082     0.000000002740353
     0.000000056860082    -0.023206259914341    -0.052810600261223
     0.000000011183352    -0.035580692061313    -0.031887994108600

    -0.535525408462686     0.355498457156241     0.633191835245156
     0.355498457156241    -0.125031071762721    -0.365573498063589
     0.383818566721284    -0.221597823107013    -0.520087049980591

    -0.021710828304323     0.000000041888964    -0.000000016010176
     0.000000041888964    -0.122916820067078    -0.007188932142337
     0.000000017517520    -0.111968859977040    -0.009311446200715

    -0.003504011168587     0.034125433689148    -0.045735322785698
     0.034125433689148     0.035900742572085     0.026405297757486
    -0.030813829290033     0.017790359721934    -0.031887994108600

    -0.003503912605918    -0.034125475578120     0.045735338795878
    -0.034125475578120     0.035900695678137     0.026405291678304
     0.030813811772495     0.017790355756424    -0.031887995020088

    -0.097615299962362     0.043823479240915    -0.006225789856267
     0.043823479240915    -0.047012254903577     0.003594479936387
    -0.096967845442757     0.055984438194103    -0.009311446200715

    -0.097615280338635    -0.043823477443786     0.006225771204374
    -0.043823477443786    -0.047012283190429     0.003594472218100
     0.096967825058161     0.055984396444915    -0.009311406485420

     0.080216105963059    -0.000000001797116     0.000000018651885
    -0.000000001797116    -0.740772539436293     0.731146963822779
     0.000000020384247     0.443195517402134    -0.520087049980591

    -0.535525358724368    -0.355498514016413     0.633191837985452
    -0.355498514016413    -0.125031164507653     0.365573474944041
     0.383818577904996     0.221597692374484    -0.520087088786876

     0.055603038070609     0.000000056860082    -0.000000002740353
     0.000000056860082    -0.023206259914341     0.052810600261223
    -0.000000011183352     0.035580692061313    -0.031887994108600

    -0.535525408462686     0.355498457156241    -0.633191835245156
     0.355498457156241    -0.125031071762721     0.365573498063589
    -0.383818566721284     0.221597823107013    -0.520087049980591

    -0.021710828304323     0.000000041888964     0.000000016010176
     0.000000041888964    -0.122916820067078     0.007188932142337
    -0.000000017517520     0.111968859977040    -0.009311446200715

    -0.003504011168587     0.034125433689148     0.045735322785698
     0.034125433689148     0.035900742572085    -0.026405297757486
     0.030813829290033    -0.017790359721934    -0.031887994108600

    -0.003503912605918    -0.034125475578120    -0.045735338795878
    -0.034125475578120     0.035900695678137    -0.026405291678304
    -0.030813811772495    -0.017790355756424    -0.031887995020088

    -0.097615299962362     0.043823479240915     0.006225789856267
     0.043823479240915    -0.047012254903577    -0.003594479936387
     0.096967845442757    -0.055984438194103    -0.009311446200715

    -0.097615280338635    -0.043823477443786    -0.006225771204374
    -0.043823477443786    -0.047012283190429    -0.003594472218100
    -0.096967825058161    -0.055984396444915    -0.009311406485420

     0.080216105963059    -0.000000001797116    -0.000000018651885
    -0.000000001797116    -0.740772539436293    -0.731146963822779
    -0.000000020384247    -0.443195517402134    -0.520087049980591

    -0.921051897963412     0.000000000000000     0.000000000000000
     0.000000000000000     0.093373375718832     0.000000000000000
     0.000000000000000     0.000000000000000     0.115065739844238

     7.024998103932876     0.000000000000000     0.000000000000000
     0.000000000000000     7.024997995924396     0.000000000000000
     0.000000000000000     0.000000000000000     6.930746764529609

    -0.921051897963412     0.000000000000000     0.000000000000000
     0.000000000000000     0.093373375718832     0.000000000000000
     0.000000000000000     0.000000000000000     0.115065739844238

     0.030278490229934    -0.000000000000000     0.000000000000000
    -0.000000000000000     0.030278544215273     0.000000000000000
     0.000000000000000     0.000000000000000     0.062240297485922

    -0.160232902212397     0.439259016363881     0.000000000000000
     0.439259016363881    -0.667445539055948     0.000000000000000
     0.000000000000000     0.000000000000000     0.115065739844238

    -0.160232902212397    -0.439259016363881     0.000000000000000
    -0.439259016363881    -0.667445539055948     0.000000000000000
     0.000000000000000     0.000000000000000     0.115065739844238

    -0.160232902212397    -0.439259016363881     0.000000000000000
    -0.439259016363881    -0.667445539055948     0.000000000000000
     0.000000000000000     0.000000000000000     0.115065739844238

    -0.160232902212397     0.439259016363881     0.000000000000000
     0.439259016363881    -0.667445539055948     0.000000000000000
     0.000000000000000     0.000000000000000     0.115065739844238

     0.030278490229934    -0.000000000000000     0.000000000000000
    -0.000000000000000     0.030278544215273     0.000000000000000
     0.000000000000000     0.000000000000000     0.062240297485922

     0.002255561677581     0.000000000000000     0.000000000000000
     0.000000000000000     0.010921343158335     0.000000000000000
     0.000000000000000     0.000000000000000    -0.062579946280914

     0.046083455620357     0.000000000000000     0.000000000000000
     0.000000000000000     0.046083455620357     0.000000000000000
     0.000000000000000     0.000000000000000    -0.832420702874970

     0.002255561677581     0.000000000000000     0.000000000000000
     0.000000000000000     0.010921343158335     0.000000000000000
     0.000000000000000     0.000000000000000    -0.062579946280914

    -0.004905324340535     0.000000000000000     0.000000000000000
     0.000000000000000    -0.004905324340535     0.000000000000000
     0.000000000000000     0.000000000000000     0.035393169736356

     0.008754938277171     0.003752440316564     0.000000000000000
     0.003752440316564     0.004422047536778     0.000000000000000
     0.000000000000000     0.000000000000000    -0.062579946280914

     0.008754938277171    -0.003752440316564     0.000000000000000
    -0.003752440316564     0.004422047536778     0.000000000000000
     0.000000000000000     0.000000000000000    -0.062579946280914

     0.008754938277171    -0.003752440316564     0.000000000000000
    -0.003752440316564     0.004422047536778     0.000000000000000
     0.000000000000000     0.000000000000000    -0.062579946280914

     0.008754938277171     0.003752440316564     0.000000000000000
     0.003752440316564     0.004422047536778     0.000000000000000
     0.000000000000000     0.000000000000000    -0.062579946280914

    -0.004905324340535     0.000000000000000     0.000000000000000
     0.000000000000000    -0.004905324340535     0.000000000000000
     0.000000000000000     0.000000000000000     0.035393169736356

    -0.097615328146599     0.043823484104600     0.006225773846087
     0.043823484104600    -0.047012273472047    -0.003594452205951
     0.096967816207588    -0.055984394790048    -0.009311446200715

     0.080216040570557     0.000000000000000     0.000000000000000
     0.000000000000000    -0.740772563802578    -0.731146949888082
     0.000000000000000    -0.443195600690615    -0.520087088786876

    -0.097615328146599    -0.043823484104600    -0.006225773846087
    -0.043823484104600    -0.047012273472047    -0.003594452205951
    -0.096967816207588    -0.055984394790048    -0.009311446200715

    -0.021710804376290    -0.000000000000000     0.000000000000000
    -0.000000000000000    -0.122916805905481     0.007188944436209
     0.000000000000000     0.111968913388520    -0.009311406485420

    -0.003503919916703    -0.034125423581731    -0.045735325526043
    -0.034125423581731     0.035900698072884    -0.026405302503931
    -0.030813793720698    -0.017790352099392    -0.031887994108600

    -0.003503919916703     0.034125423581731     0.045735325526043
     0.034125423581731     0.035900698072884    -0.026405302503931
     0.030813793720698    -0.017790352099392    -0.031887994108600

    -0.535525384582269    -0.355498505706125     0.633191816592680
    -0.355498505706125    -0.125031095642652     0.365573465757733
     0.383818593089832     0.221597768040180    -0.520087049980591

    -0.535525384582269     0.355498505706125    -0.633191816592680
     0.355498505706125    -0.125031095642652     0.365573465757733
    -0.383818593089832     0.221597768040180    -0.520087049980591

     0.055603073565703    -0.000000000000000     0.000000000000000
    -0.000000000000000    -0.023206243740618     0.052810583356414
     0.000000000000000     0.035580645000178    -0.031887995020088

    -0.097615328146599     0.043823484104600    -0.006225773846087
     0.043823484104600    -0.047012273472047     0.003594452205951
    -0.096967816207588     0.055984394790048    -0.009311446200715

     0.080216040570557     0.000000000000000     0.000000000000000
     0.000000000000000    -0.740772563802578     0.731146949888082
     0.000000000000000     0.443195600690615    -0.520087088786876

    -0.097615328146599    -0.043823484104600     0.006225773846087
    -0.043823484104600    -0.047012273472047     0.003594452205951
     0.096967816207588     0.055984394790048    -0.009311446200715

    -0.021710804376290    -0.000000000000000     0.000000000000000
    -0.000000000000000    -0.122916805905481    -0.007188944436209
    -0.000000000000000    -0.111968913388520    -0.009311406485420

    -0.003503919916703    -0.034125423581731     0.045735325526043
    -0.034125423581731     0.035900698072884     0.026405302503931
     0.030813793720698     0.017790352099392    -0.031887994108600

    -0.003503919916703     0.034125423581731    -0.045735325526043
     0.034125423581731     0.035900698072884     0.026405302503931
    -0.030813793720698     0.017790352099392    -0.031887994108600

    -0.535525384582269    -0.355498505706125    -0.633191816592680
    -0.355498505706125    -0.125031095642652    -0.365573465757733
    -0.383818593089832    -0.221597768040180    -0.520087049980591

    -0.535525384582269     0.355498505706125     0.633191816592680
     0.355498505706125    -0.125031095642652    -0.365573465757733
     0.383818593089832    -0.221597768040180    -0.520087049980591

     0.055603073565703    -0.000000000000000    -0.000000000000000
    -0.000000000000000    -0.023206243740618    -0.052810583356414
    -0.000000000000000    -0.035580645000178    -0.031887995020088

    -0.535525408462686     0.355498457156241     0.633191835245156
     0.355498457156241    -0.125031071762721    -0.365573498063589
     0.383818566721284    -0.221597823107013    -0.520087049980591

    -0.535525358724368    -0.355498514016413    -0.633191837985452
    -0.355498514016413    -0.125031164507653    -0.365573474944041
    -0.383818577904996    -0.221597692374484    -0.520087088786876

     0.055603038070609     0.000000056860082     0.000000002740353
     0.000000056860082    -0.023206259914341    -0.052810600261223
     0.000000011183352    -0.035580692061313    -0.031887994108600

    -0.003503912605918    -0.034125475578120     0.045735338795878
    -0.034125475578120     0.035900695678137     0.026405291678304
     0.030813811772495     0.017790355756424    -0.031887995020088

    -0.021710828304323     0.000000041888964    -0.000000016010176
     0.000000041888964    -0.122916820067078    -0.007188932142337
     0.000000017517520    -0.111968859977040    -0.009311446200715

    -0.003504011168587     0.034125433689148    -0.045735322785698
     0.034125433689148     0.035900742572085     0.026405297757486
    -0.030813829290033     0.017790359721934    -0.031887994108600

     0.080216105963059    -0.000000001797116     0.000000018651885
    -0.000000001797116    -0.740772539436293     0.731146963822779
     0.000000020384247     0.443195517402134    -0.520087049980591

    -0.097615299962362     0.043823479240915    -0.006225789856267
     0.043823479240915    -0.047012254903577     0.003594479936387
    -0.096967845442757     0.055984438194103    -0.009311446200715

    -0.097615280338635    -0.043823477443786     0.006225771204374
    -0.043823477443786    -0.047012283190429     0.003594472218100
     0.096967825058161     0.055984396444915    -0.009311406485420

    -0.535525408462686     0.355498457156241    -0.633191835245156
     0.355498457156241    -0.125031071762721     0.365573498063589
    -0.383818566721284     0.221597823107013    -0.520087049980591

    -0.535525358724368    -0.355498514016413     0.633191837985452
    -0.355498514016413    -0.125031164507653     0.365573474944041
     0.383818577904996     0.221597692374484    -0.520087088786876

     0.055603038070609     0.000000056860082    -0.000000002740353
     0.000000056860082    -0.023206259914341     0.052810600261223
    -0.000000011183352     0.035580692061313    -0.031887994108600

    -0.003503912605918    -0.034125475578120    -0.045735338795878
    -0.034125475578120     0.035900695678137    -0.026405291678304
    -0.030813811772495    -0.017790355756424    -0.031887995020088

    -0.021710828304323     0.000000041888964     0.000000016010176
     0.000000041888964    -0.122916820067078     0.007188932142337
    -0.000000017517520     0.111968859977040    -0.009311446200715

    -0.003504011168587     0.034125433689148     0.045735322785698
     0.034125433689148     0.035900742572085    -0.026405297757486
     0.030813829290033    -0.017790359721934    -0.031887994108600

     0.080216105963059    -0.000000001797116    -0.000000018651885
    -0.000000001797116    -0.740772539436293    -0.731146963822779
    -0.000000020384247    -0.443195517402134    -0.520087049980591

    -0.097615299962362     0.043823479240915     0.006225789856267
     0.043823479240915    -0.047012254903577    -0.003594479936387
     0.096967845442757    -0.055984438194103    -0.009311446200715

    -0.097615280338635    -0.043823477443786    -0.006225771204374
    -0.043823477443786    -0.047012283190429    -0.003594472218100
    -0.096967825058161    -0.055984396444915    -0.009311406485420

    -0.921051897963412     0.000000000000000     0.000000000000000
     0.000000000000000     0.093373375718832     0.000000000000000
     0.000000000000000     0.000000000000000     0.115065739844238

    -0.921051897963412     0.000000000000000     0.000000000000000
     0.000000000000000     0.093373375718832     0.000000000000000
     0.000000000000000     0.000000000000000     0.115065739844238

     7.024998103932876     0.000000000000000     0.000000000000000
     0.000000000000000     7.024997995924396     0.000000000000000
     0.000000000000000     0.000000000000000     6.930746764529609

    -0.160232902212397    -0.439259016363881     0.000000000000000
    -0.439259016363881    -0.667445539055948     0.000000000000000
     0.000000000000000     0.000000000000000     0.115065739844238

     0.030278490229934    -0.000000000000000     0.000000000000000
    -0.000000000000000     0.030278544215273     0.000000000000000
     0.000000000000000     0.000000000000000     0.062240297485922

    -0.160232902212397     0.439259016363881     0.000000000000000
     0.439259016363881    -0.667445539055948     0.000000000000000
     0.000000000000000     0.000000000000000     0.115065739844238

     0.030278490229934    -0.000000000000000     0.000000000000000
    -0.000000000000000     0.030278544215273     0.000000000000000
     0.000000000000000     0.000000000000000     0.062240297485922

    -0.160232902212397    -0.439259016363881     0.000000000000000
    -0.439259016363881    -0.667445539055948     0.000000000000000
     0.000000000000000     0.000000000000000     0.115065739844238

    -0.160232902212397     0.439259016363881     0.000000000000000
     0.439259016363881    -0.667445539055948     0.000000000000000
     0.000000000000000     0.000000000000000     0.115065739844238

     0.002255561677581     0.000000000000000     0.000000000000000
     0.000000000000000     0.010921343158335     0.000000000000000
     0.000000000000000     0.000000000000000    -0.062579946280914

     0.002255561677581     0.000000000000000     0.000000000000000
     0.000000000000000     0.010921343158335     0.000000000000000
     0.000000000000000     0.000000000000000    -0.062579946280914

     0.046083455620357     0.000000000000000     0.000000000000000
     0.000000000000000     0.046083455620357     0.000000000000000
     0.000000000000000     0.000000000000000    -0.832420702874970

     0.008754938277171    -0.003752440316564     0.000000000000000
    -0.003752440316564     0.004422047536778     0.000000000000000
     0.000000000000000     0.000000000000000    -0.062579946280914

    -0.004905324340535     0.000000000000000     0.000000000000000
     0.000000000000000    -0.004905324340535     0.000000000000000
     0.000000000000000     0.000000000000000     0.035393169736356

     0.008754938277171     0.003752440316564     0.000000000000000
     0.003752440316564     0.004422047536778     0.000000000000000
     0.000000000000000     0.000000000000000    -0.062579946280914

    -0.004905324340535     0.000000000000000     0.000000000000000
     0.000000000000000    -0.004905324340535     0.000000000000000
     0.000000000000000     0.000000000000000     0.035393169736356

     0.008754938277171    -0.003752440316564     0.000000000000000
    -0.003752440316564     0.004422047536778     0.000000000000000
     0.000000000000000     0.000000000000000    -0.062579946280914

     0.008754938277171     0.003752440316564     0.000000000000000
     0.003752440316564     0.004422047536778     0.000000000000000
     0.000000000000000     0.000000000000000    -0.062579946280914

    -0.097615328146599    -0.043823484104600    -0.006225773846087
    -0.043823484104600    -0.047012273472047    -0.003594452205951
    -0.096967816207588    -0.055984394790048    -0.009311446200715

    -0.097615328146599     0.043823484104600     0.006225773846087
     0.043823484104600    -0.047012273472047    -0.003594452205951
     0.096967816207588    -0.055984394790048    -0.009311446200715

     0.080216040570557     0.000000000000000     0.000000000000000
     0.000000000000000    -0.740772563802578    -0.731146949888082
     0.000000000000000    -0.443195600690615    -0.520087088786876

    -0.003503919916703     0.034125423581731     0.045735325526043
     0.034125423581731     0.035900698072884    -0.026405302503931
     0.030813793720698    -0.017790352099392    -0.031887994108600

    -0.021710804376290    -0.000000000000000     0.000000000000000
    -0.000000000000000    -0.122916805905481     0.007188944436209
     0.000000000000000     0.111968913388520    -0.009311406485420

    -0.003503919916703    -0.034125423581731    -0.045735325526043
    -0.034125423581731     0.035900698072884    -0.026405302503931
    -0.030813793720698    -0.017790352099392    -0.031887994108600

     0.055603073565703    -0.000000000000000     0.000000000000000
    -0.000000000000000    -0.023206243740618     0.052810583356414
     0.000000000000000     0.035580645000178    -0.031887995020088

    -0.535525384582269    -0.355498505706125     0.633191816592680
    -0.355498505706125    -0.125031095642652     0.365573465757733
     0.383818593089832     0.221597768040180    -0.520087049980591

    -0.535525384582269     0.355498505706125    -0.633191816592680
     0.355498505706125    -0.125031095642652     0.365573465757733
    -0.383818593089832     0.221597768040180    -0.520087049980591

    -0.097615328146599    -0.043823484104600     0.006225773846087
    -0.043823484104600    -0.047012273472047     0.003594452205951
     0.096967816207588     0.055984394790048    -0.009311446200715

    -0.097615328146599     0.043823484104600    -0.006225773846087
     0.043823484104600    -0.047012273472047     0.003594452205951
    -0.096967816207588     0.055984394790048    -0.009311446200715

     0.080216040570557     0.000000000000000     0.000000000000000
     0.000000000000000    -0.740772563802578     0.731146949888082
     0.000000000000000     0.443195600690615    -0.520087088786876

    -0.003503919916703     0.034125423581731    -0.045735325526043
     0.034125423581731     0.035900698072884     0.026405302503931
    -0.030813793720698     0.017790352099392    -0.031887994108600

    -0.021710804376290    -0.000000000000000     0.000000000000000
    -0.000000000000000    -0.122916805905481    -0.007188944436209
    -0.000000000000000    -0.111968913388520    -0.009311406485420

    -0.003503919916703    -0.034125423581731     0.045735325526043
    -0.034125423581731     0.035900698072884     0.026405302503931
     0.030813793720698     0.017790352099392    -0.031887994108600

     0.055603073565703    -0.000000000000000    -0.000000000000000
    -0.000000000000000    -0.023206243740618    -0.052810583356414
    -0.000000000000000    -0.035580645000178    -0.031887995020088

    -0.535525384582269    -0.355498505706125    -0.633191816592680
    -0.355498505706125    -0.125031095642652    -0.365573465757733
    -0.383818593089832    -0.221597768040180    -0.520087049980591

    -0.535525384582269     0.355498505706125     0.633191816592680
     0.355498505706125    -0.125031095642652    -0.365573465757733
     0.383818593089832    -0.221597768040180    -0.520087049980591

     0.055603038070609     0.000000056860082     0.000000002740353
     0.000000056860082    -0.023206259914341    -0.052810600261223
     0.000000011183352    -0.035580692061313    -0.031887994108600

    -0.535525408462686     0.355498457156241     0.633191835245156
     0.355498457156241    -0.125031071762721    -0.365573498063589
     0.383818566721284    -0.221597823107013    -0.520087049980591

    -0.535525358724368    -0.355498514016413    -0.633191837985452
    -0.355498514016413    -0.125031164507653    -0.365573474944041
    -0.383818577904996    -0.221597692374484    -0.520087088786876

    -0.003504011168587     0.034125433689148    -0.045735322785698
     0.034125433689148     0.035900742572085     0.026405297757486
    -0.030813829290033     0.017790359721934    -0.031887994108600

    -0.003503912605918    -0.034125475578120     0.045735338795878